 Gaussian 16, Revision A.03,
 Gaussian 16:  ES64L-G16RevA.03 25-Dec-2016

 -------------
 #p hf/6-31g**
 -------------

 ----------------------------------
 gebf{dis=3.0 frag=read charge=npa}
 ----------------------------------
 Symbolic Z-matrix:
 Charge =  0 Multiplicity = 1

                         Standard orientation:
 ---------------------------------------------------------------------
 Center     Atomic      Atomic             Coordinates (Angstroms)
 Number     Number       Type             X           Y           Z
 ---------------------------------------------------------------------
      1          6           0        2.908029   -0.728403   -0.126211
      2          1           0        2.849218   -1.667307    0.383595
      3          1           0        2.907656   -0.895752   -1.183044
      4          6           0        1.695362    0.140307    0.256386
      5          1           0        1.695735    0.307656    1.313218
      6          6           0        0.397515   -0.583157   -0.148325
      7          1           0        0.338703   -1.522060    0.361481
      8          1           0        0.397142   -0.750506   -1.205158
      9          6           0       -2.113000   -0.437910   -0.170439
     10          1           0       -2.171811   -1.376814    0.339367
     11          1           0       -2.113372   -0.605259   -1.227271
     12          6           0       -3.325666    0.430801    0.212158
     13          1           0       -3.266855    1.369704   -0.297648
     14          1           0       -3.325293    0.598149    1.268990
     15          7           0       -4.564521   -0.259779   -0.174157
     16          1           0       -4.619484   -1.137259    0.302297
     17          1           0       -5.351966    0.304319    0.074283
     18          9           0        1.769563    1.324905   -0.386827
     19          8           0        4.113173   -0.056615    0.249592
     20          1           0        4.869121   -0.598149    0.011090
     21          6           0       -0.815152    0.285554    0.234272
     22          1           0       -0.756341    1.224457   -0.275534
     23          1           0       -0.814779    0.452903    1.291104
 ---------------------------------------------------------------------

 SCF Done:  E(RHF) =  -464.108053832     A.U. after   13 cycles

 The electronic state is 1-A.
 Alpha  occ. eigenvalues --  -26.27222 -20.55745 -15.53085 -11.30202 -11.27493
 Alpha  occ. eigenvalues --  -11.23825 -11.22193 -11.21517 -11.21183  -1.59129
 Alpha  occ. eigenvalues --   -1.35043  -1.17361  -1.08779  -1.02461  -0.94764
 Alpha  occ. eigenvalues --   -0.86226  -0.82228  -0.80545  -0.71920  -0.70198
 Alpha  occ. eigenvalues --   -0.67047  -0.66178  -0.65336  -0.63576  -0.61551
 Alpha  occ. eigenvalues --   -0.60377  -0.57331  -0.55570  -0.53052  -0.51508
 Alpha  occ. eigenvalues --   -0.51056  -0.48514  -0.48253  -0.47201  -0.44841
 Alpha  occ. eigenvalues --   -0.43414  -0.38028
 Alpha virt. eigenvalues --    0.22168   0.22529   0.23801   0.25852   0.26430
 Alpha virt. eigenvalues --    0.27950   0.30569   0.31159   0.32405   0.34268
 Alpha virt. eigenvalues --    0.34606   0.34906   0.36114   0.37120   0.37374

 Mulliken charges:
               1
     1  C    0.098605
     2  H    0.097447
     3  H    0.108626
     4  C    0.310137
     5  H    0.114906
     6  C   -0.268934
     7  H    0.115011
     8  H    0.128391
     9  C   -0.217710
    10  H    0.100980
    11  H    0.131632
    12  C   -0.027812
    13  H    0.119461
    14  H    0.091289
    15  N   -0.712582
    16  H    0.259330
    17  H    0.263000
    18  F   -0.406675
    19  O   -0.661960
    20  H    0.339799
    21  C   -0.235022
    22  H    0.140454
    23  H    0.111628
 Sum of Mulliken charges =  -0.00000

 Dipole moment (field-independent basis, Debye):
    X=             -0.3728    Y=             -2.8211    Z=              1.3049  Tot=              3.1306
 Quadrupole moment (field-independent basis, Debye-Ang):
   XX=            -53.4198   YY=            -55.8574   ZZ=            -56.7964
   XY=            -11.3167   XZ=             -9.1433   YZ=             -0.4634

 Normal termination of Gaussian 16 at Thu Apr 16 19:52:48 2020.
