 Gaussian 16, Revision A.03,
 Gaussian 16:  ES64L-G16RevA.03 25-Dec-2016

 --------------------------------------
 #p hf/6-31g(d) geom=connectivity 5d 7f
 --------------------------------------

 -----------------------------------
 lsqc{dis=3.0 frag=conn charge=none}
 -----------------------------------
 Symbolic Z-matrix:
 Charge =  0 Multiplicity = 1

                         Standard orientation:
 ---------------------------------------------------------------------
 Center     Atomic      Atomic             Coordinates (Angstroms)
 Number     Number       Type             X           Y           Z
 ---------------------------------------------------------------------
      1          6           0       19.805866    0.378823    0.000178
      2          6           0       18.531600   -0.465018   -0.000115
      3          6           0       17.255090    0.378081    0.000164
      4          6           0       15.975006   -0.459434   -0.000127
      5          6           0       14.698996    0.384549    0.000153
      6          6           0       13.418878   -0.453176   -0.000137
      7          6           0       12.142861    0.390790    0.000143
      8          6           0       10.862721   -0.446912   -0.000146
      9          6           0        9.586692    0.397040    0.000135
     10          6           0        8.306546   -0.440654   -0.000153
     11          6           0        7.030512    0.403292    0.000129
     12          6           0        5.750363   -0.434398   -0.000156
     13          6           0        4.474329    0.409546    0.000126
     14          6           0        3.194180   -0.428143   -0.000156
     15          6           0        1.918145    0.415800    0.000124
     16          6           0        0.638000   -0.421895   -0.000149
     17          6           0       -0.638038    0.422037    0.000110
     18          6           0       -1.918178   -0.415658   -0.000065
     19          6           0       -3.194218    0.428261   -0.000059
     20          6           0       -4.474353   -0.409444   -0.000063
     21          6           0       -5.750393    0.434477   -0.000044
     22          6           0       -7.030525   -0.403230    0.000030
     23          6           0       -8.306562    0.440692   -0.000190
     24          6           0       -9.586689   -0.397022    0.000053
     25          6           0      -10.862723    0.446905   -0.000154
     26          6           0      -12.142844   -0.390814    0.000168
     27          6           0      -13.418867    0.453124   -0.000280
     28          6           0      -14.698968   -0.384621    0.000211
     29          6           0      -15.974986    0.459334   -0.000224
     30          6           0      -17.255053   -0.378198    0.000349
     31          6           0      -18.531572    0.464871   -0.000347
     32          6           0      -19.805822   -0.378986    0.000419
     33          1           0      -19.852399   -1.017925    0.877881
     34          1           0      -14.700574   -1.037926    0.871197
     35          1           0       -4.475936   -1.063266    0.870548
     36          1           0        0.636403   -1.075973    0.870268
     37          1           0       20.693090   -0.246986   -0.000030
     38          1           0       19.852490    1.018793   -0.876528
     39          1           0       19.852481    1.018197    0.877318
     40          1           0       18.531643   -1.117652   -0.870651
     41          1           0       18.531634   -1.118243    0.869977
     42          1           0       17.257726    1.031717    0.871051
     43          1           0       17.257735    1.032308   -0.870279
     44          1           0       15.973479   -1.112916   -0.871004
     45          1           0       15.973470   -1.113507    0.870307
     46          1           0       14.700641    1.038620   -0.870254
     47          1           0       14.700632    1.038030    0.871004
     48          1           0       13.417295   -1.106670   -0.870988
     49          1           0       13.417287   -1.107260    0.870270
     50          1           0       12.144465    1.044289    0.870990
     51          1           0       12.144472    1.044878   -0.870262
     52          1           0       10.861129   -1.100414   -0.870992
     53          1           0       10.861122   -1.101003    0.870258
     54          1           0        9.588298    1.051132   -0.870269
     55          1           0        9.588292    1.050544    0.870980
     56          1           0        8.304951   -1.094160   -0.870998
     57          1           0        8.304945   -1.094748    0.870250
     58          1           0        7.032112    1.056799    0.870973
     59          1           0        7.032116    1.057386   -0.870274
     60          1           0        5.748766   -1.087906   -0.871001
     61          1           0        5.748762   -1.088493    0.870246
     62          1           0        4.475930    1.063640   -0.870278
     63          1           0        4.475929    1.063056    0.870968
     64          1           0        3.192581   -1.081654   -0.870997
     65          1           0        3.192579   -1.082235    0.870250
     66          1           0        1.919744    1.069316    0.870962
     67          1           0        1.919742    1.069887   -0.870286
     68          1           0        0.636410   -1.075422   -0.870979
     69          1           0       -0.636465    1.076076   -0.870338
     70          1           0       -0.636417    1.075615    0.870904
     71          1           0       -1.919713   -1.069374   -0.870755
     72          1           0       -1.919821   -1.069558    0.870487
     73          1           0       -3.192634    1.082072    0.870560
     74          1           0       -3.192634    1.082069   -0.870681
     75          1           0       -4.475948   -1.063238   -0.870696
     76          1           0       -5.748833    1.088263   -0.870682
     77          1           0       -5.748776    1.088306    0.870562
     78          1           0       -7.032066   -1.057190   -0.870476
     79          1           0       -7.032158   -1.056883    0.870768
     80          1           0       -8.304973    1.094747    0.870246
     81          1           0       -8.304988    1.094252   -0.870997
     82          1           0       -9.588293   -1.051059   -0.870396
     83          1           0       -9.588266   -1.050596    0.870850
     84          1           0      -10.861174    1.100442   -0.870978
     85          1           0      -10.861102    1.100977    0.870268
     86          1           0      -12.144398   -1.045015   -0.870156
     87          1           0      -12.144475   -1.044215    0.871092
     88          1           0      -13.417282    1.107415    0.869976
     89          1           0      -13.417312    1.106429   -0.871276
     90          1           0      -14.700616   -1.038881   -0.870057
     91          1           0      -15.973511    1.112604   -0.871264
     92          1           0      -15.973421    1.113635    0.870042
     93          1           0      -17.257642   -1.032795   -0.869819
     94          1           0      -17.257716   -1.031477    0.871507
     95          1           0      -18.531601    1.118572    0.869391
     96          1           0      -18.531646    1.117046   -0.871231
     97          1           0      -20.693056    0.246810   -0.000065
     98          1           0      -19.852481   -1.019397   -0.875965
 ---------------------------------------------------------------------

 SCF Done:  E(RHF) =  -1250.26411827     A.U. after   10 cycles

 The electronic state is 1-A.
 Alpha  occ. eigenvalues --  -11.20984 -11.20984 -11.20791 -11.20791 -11.20767
 Alpha  occ. eigenvalues --  -11.20767 -11.20756 -11.20756 -11.20752 -11.20750
 Alpha  occ. eigenvalues --  -11.20746 -11.20741 -11.20736 -11.20731 -11.20725
 Alpha  occ. eigenvalues --  -11.20719 -11.20713 -11.20707 -11.20701 -11.20695
 Alpha  occ. eigenvalues --  -11.20689 -11.20682 -11.20676 -11.20670 -11.20664
 Alpha  occ. eigenvalues --  -11.20659 -11.20653 -11.20648 -11.20643 -11.20639
 Alpha  occ. eigenvalues --  -11.20319 -11.20319  -1.09915  -1.09699  -1.09327
 Alpha  occ. eigenvalues --   -1.08802  -1.08125  -1.07299  -1.06326  -1.05210
 Alpha  occ. eigenvalues --   -1.03953  -1.02560  -1.01035  -0.99386  -0.97620
 Alpha  occ. eigenvalues --   -0.95748  -0.93784  -0.91746  -0.89659  -0.87557
 Alpha  occ. eigenvalues --   -0.85488  -0.83521  -0.81743  -0.80257  -0.79170
 Alpha  occ. eigenvalues --   -0.79038  -0.78922  -0.78782  -0.78537  -0.78465
 Alpha  occ. eigenvalues --   -0.78223  -0.78128  -0.77926  -0.77906  -0.66449
 Alpha  occ. eigenvalues --   -0.66253  -0.65915  -0.65441  -0.64835  -0.64106
 Alpha  occ. eigenvalues --   -0.63259  -0.62305  -0.61253  -0.60116  -0.59190
 Alpha  occ. eigenvalues --   -0.59128  -0.58910  -0.58723  -0.58398  -0.58072
 Alpha  occ. eigenvalues --   -0.57650  -0.57233  -0.57159  -0.56356  -0.56094
 Alpha  occ. eigenvalues --   -0.55563  -0.55050  -0.54920  -0.53755  -0.53700
 Alpha  occ. eigenvalues --   -0.53533  -0.52495  -0.52476  -0.51397  -0.51294
 Alpha  occ. eigenvalues --   -0.51164  -0.50210  -0.50177  -0.49194  -0.49164
 Alpha  occ. eigenvalues --   -0.48897  -0.48284  -0.48275  -0.47556  -0.47520
 Alpha  occ. eigenvalues --   -0.46913  -0.46905  -0.46582  -0.46429  -0.46365
 Alpha  occ. eigenvalues --   -0.46085  -0.46021  -0.45862  -0.45782  -0.45752
 Alpha  occ. eigenvalues --   -0.45741  -0.45725  -0.45679  -0.45672  -0.45610
 Alpha  occ. eigenvalues --   -0.45610  -0.45521  -0.45375  -0.45281  -0.45222
 Alpha  occ. eigenvalues --   -0.44382  -0.42530  -0.41089  -0.40165
 Alpha virt. eigenvalues --    0.22517   0.22636   0.22842   0.23124   0.23468
 Alpha virt. eigenvalues --    0.23860   0.24292   0.24766   0.25296   0.25378
 Alpha virt. eigenvalues --    0.25646   0.25911   0.26105   0.26175   0.26442

 Mulliken charges:
               1
     1  C   -0.490448
     2  C   -0.310928
     3  C   -0.307968
     4  C   -0.311096
     5  C   -0.310831
     6  C   -0.310953
     7  C   -0.310894
     8  C   -0.310864
     9  C   -0.310856
    10  C   -0.310851
    11  C   -0.310849
    12  C   -0.310846
    13  C   -0.310845
    14  C   -0.310844
    15  C   -0.310844
    16  C   -0.310843
    17  C   -0.310844
    18  C   -0.310843
    19  C   -0.310844
    20  C   -0.310845
    21  C   -0.310846
    22  C   -0.310848
    23  C   -0.310851
    24  C   -0.310856
    25  C   -0.310863
    26  C   -0.310893
    27  C   -0.310952
    28  C   -0.310830
    29  C   -0.311095
    30  C   -0.307967
    31  C   -0.310928
    32  C   -0.490448
    33  H    0.160102
    34  H    0.155566
    35  H    0.155427
    36  H    0.155424
    37  H    0.164341
    38  H    0.160102
    39  H    0.160102
    40  H    0.157117
    41  H    0.157117
    42  H    0.155027
    43  H    0.155027
    44  H    0.155534
    45  H    0.155534
    46  H    0.155567
    47  H    0.155567
    48  H    0.155494
    49  H    0.155494
    50  H    0.155475
    51  H    0.155475
    52  H    0.155452
    53  H    0.155452
    54  H    0.155444
    55  H    0.155445
    56  H    0.155435
    57  H    0.155435
    58  H    0.155432
    59  H    0.155433
    60  H    0.155428
    61  H    0.155428
    62  H    0.155427
    63  H    0.155428
    64  H    0.155426
    65  H    0.155425
    66  H    0.155426
    67  H    0.155425
    68  H    0.155425
    69  H    0.155424
    70  H    0.155424
    71  H    0.155425
    72  H    0.155425
    73  H    0.155425
    74  H    0.155425
    75  H    0.155427
    76  H    0.155428
    77  H    0.155428
    78  H    0.155432
    79  H    0.155433
    80  H    0.155434
    81  H    0.155435
    82  H    0.155444
    83  H    0.155444
    84  H    0.155451
    85  H    0.155452
    86  H    0.155474
    87  H    0.155475
    88  H    0.155494
    89  H    0.155494
    90  H    0.155567
    91  H    0.155533
    92  H    0.155534
    93  H    0.155026
    94  H    0.155026
    95  H    0.157117
    96  H    0.157117
    97  H    0.164341
    98  H    0.160102
 Sum of Mulliken charges =  -0.00000

 Dipole moment (field-independent basis, Debye):
    X=             -0.0000    Y=              0.0000    Z=             -0.0000  Tot=              0.0000
 Quadrupole moment (field-independent basis, Debye-Ang):
   XX=           -225.6115   YY=           -220.0245   ZZ=           -212.5084
   XY=             -1.5685   XZ=              0.0005   YZ=             -0.0001

 Normal termination of Gaussian 16 at Thu Aug 29 20:47:58 2019.
