 Gaussian 16, Revision A.03,
 Gaussian 16:  ES64L-G16RevA.03 25-Dec-2016

 --------------
 #p hf/6-31g(d)
 --------------

 -----------------------
 gebf{dis=3.0 frag=read}
 -----------------------
 Symbolic Z-matrix:
 Charge =  0 Multiplicity = 1

                         Standard orientation:
 ---------------------------------------------------------------------
 Center     Atomic      Atomic             Coordinates (Angstroms)
 Number     Number       Type             X           Y           Z
 ---------------------------------------------------------------------
      1          8           0        2.424627   -1.698660    1.046831
      2          1           0        2.090951   -1.434581    1.907367
      3          1           0        1.689418   -1.816061    0.440791
      4          1           0        0.277795   -1.286610   -0.382860
      5          8           0        0.879634   -1.191839   -1.124754
      6          1           0        0.380171   -1.196361   -1.944581
      7          1           0        2.989537   -1.551840   -0.754334
      8          8           0        3.363326   -0.868997   -1.316124
      9          1           0        2.663148   -0.455924   -1.826732
     10          1           0        2.423152    0.030322    0.072776
     11          8           0        2.064394    0.864172    0.385166
     12          1           0        2.773205    1.403150    0.743900
     13          1           0        0.200617    0.560914   -0.757930
     14          8           0       -0.279844    1.222752   -0.255210
     15          1           0        0.343390    1.791679    0.202503
     16          1           0        0.227496   -0.000779    1.128700
     17          8           0        0.145740   -0.886862    1.488940
     18          1           0       -0.760631   -1.036630    1.767618
     19          1           0        5.282243   -0.917599   -1.494137
     20          8           0        6.094139   -0.471059   -1.243085
     21          1           0        6.514979   -0.951295   -0.526240
     22          1           0        6.009413    0.175509    0.663895
     23          8           0        6.850542    0.096377    1.119789
     24          1           0        6.819774   -0.651794    1.720533
     25          1           0        5.417386    1.743184    0.210587
     26          8           0        4.603319    1.246968    0.098049
     27          1           0        4.627858    0.777445   -0.738937
     28          1           0        4.373559   -0.743225    0.437058
     29          8           0        4.924324   -1.449897    0.781837
     30          1           0        4.367170   -2.167509    1.092017
     31          1           0        7.533617    1.617994    0.192409
     32          8           0        7.169652    1.922307   -0.642171
     33          1           0        7.077813    1.178078   -1.241578
     34          8           0       -2.337377    0.011389    1.186291
     35          1           0       -3.122708   -0.073223    0.640675
     36          1           0       -1.898595    0.842125    0.988937
     37          1           0       -4.086586    0.636151   -0.647783
     38          8           0       -4.025063   -0.223789   -1.070060
     39          1           0       -4.888471   -0.479316   -1.402974
     40          1           0       -5.153243   -0.910516    0.387344
     41          8           0       -6.079309   -0.714733    0.227119
     42          1           0       -6.353946    0.014342    0.788032
     43          1           0       -4.343017    1.755532    0.972573
     44          8           0       -4.604782    0.934321    1.395291
     45          1           0       -3.979497    0.719159    2.091226
     46          1           0       -1.715007   -0.106270   -0.617141
     47          8           0       -1.521779   -0.798855   -1.253215
     48          1           0       -2.341952   -1.122581   -1.632844
     49          8           0       -2.855759    2.046456   -0.163545
     50          1           0       -3.528314    2.470456   -0.701590
     51          1           0       -1.988752    2.226939   -0.534118
     52          1           0       -7.436859    0.322418   -0.736307
     53          8           0       -7.710446    1.144520   -0.322909
     54          1           0       -8.621416    1.067712   -0.029934
     55          1           0       -7.814512   -1.441386   -0.195049
     56          8           0       -8.694753   -1.083320   -0.331302
     57          1           0       -9.333870   -1.799606   -0.339378
 ---------------------------------------------------------------------

 SCF Done:  E(RHF) =  -1444.18865461     A.U. after   11 cycles

 The electronic state is 1-A.
 Alpha  occ. eigenvalues --  -20.62038 -20.58532 -20.57923 -20.57631 -20.57497
 Alpha  occ. eigenvalues --  -20.57233 -20.55915 -20.55772 -20.55754 -20.55377
 Alpha  occ. eigenvalues --  -20.55118 -20.53847 -20.53468 -20.52665 -20.52504
 Alpha  occ. eigenvalues --  -20.52456 -20.52231 -20.51604 -20.50481  -1.42269
 Alpha  occ. eigenvalues --   -1.39625  -1.38948  -1.37609  -1.37190  -1.36251
 Alpha  occ. eigenvalues --   -1.35870  -1.35362  -1.34916  -1.34789  -1.33593
 Alpha  occ. eigenvalues --   -1.33198  -1.32567  -1.32285  -1.31002  -1.30763
 Alpha  occ. eigenvalues --   -1.30493  -1.30180  -1.28638  -0.81033  -0.78258
 Alpha  occ. eigenvalues --   -0.77056  -0.76744  -0.76512  -0.75308  -0.74708
 Alpha  occ. eigenvalues --   -0.73668  -0.72812  -0.72354  -0.72291  -0.71991
 Alpha  occ. eigenvalues --   -0.71574  -0.70398  -0.69878  -0.69716  -0.68234
 Alpha  occ. eigenvalues --   -0.67815  -0.66908  -0.66610  -0.65281  -0.63330
 Alpha  occ. eigenvalues --   -0.62966  -0.62691  -0.62140  -0.59824  -0.59324
 Alpha  occ. eigenvalues --   -0.58513  -0.57762  -0.57298  -0.56507  -0.55492
 Alpha  occ. eigenvalues --   -0.55015  -0.54130  -0.53586  -0.53198  -0.53078
 Alpha  occ. eigenvalues --   -0.52563  -0.52131  -0.51819  -0.51372  -0.50817
 Alpha  occ. eigenvalues --   -0.50741  -0.50462  -0.50189  -0.49819  -0.49178
 Alpha  occ. eigenvalues --   -0.49070  -0.48440  -0.47614  -0.47386  -0.47003
 Alpha  occ. eigenvalues --   -0.46453  -0.46307  -0.46123  -0.44731  -0.44182
 Alpha virt. eigenvalues --    0.15524   0.20037   0.21144   0.23958   0.24518
 Alpha virt. eigenvalues --    0.25193   0.25628   0.26894   0.28413   0.29071
 Alpha virt. eigenvalues --    0.29638   0.30638   0.31258   0.31536   0.31712

 Mulliken charges:
               1
     1  O   -0.977885
     2  H    0.488122
     3  H    0.496857
     4  H    0.522049
     5  O   -1.005454
     6  H    0.484884
     7  H    0.507563
     8  O   -0.963224
     9  H    0.478205
    10  H    0.544907
    11  O   -1.050198
    12  H    0.487077
    13  H    0.519729
    14  O   -1.001120
    15  H    0.491230
    16  H    0.502825
    17  O   -1.000771
    18  H    0.494109
    19  H    0.493703
    20  O   -0.990064
    21  H    0.484689
    22  H    0.558141
    23  O   -1.004645
    24  H    0.449279
    25  H    0.498650
    26  O   -0.996119
    27  H    0.500402
    28  H    0.519423
    29  O   -1.005541
    30  H    0.468434
    31  H    0.479727
    32  O   -0.966922
    33  H    0.488265
    34  O   -1.012713
    35  H    0.527629
    36  H    0.500355
    37  H    0.482193
    38  O   -0.964512
    39  H    0.478380
    40  H    0.482634
    41  O   -0.979831
    42  H    0.508809
    43  H    0.469789
    44  O   -0.945673
    45  H    0.477261
    46  H    0.522343
    47  O   -1.008075
    48  H    0.475973
    49  O   -0.956315
    50  H    0.456398
    51  H    0.507904
    52  H    0.478317
    53  O   -0.936367
    54  H    0.456120
    55  H    0.483647
    56  O   -0.937617
    57  H    0.437022
 Sum of Mulliken charges =  -0.00000

 Dipole moment (field-independent basis, Debye):
    X=             -9.0944    Y=             -1.9354    Z=             -0.1272  Tot=              9.2989
 Quadrupole moment (field-independent basis, Debye-Ang):
   XX=           -167.9096   YY=           -113.7710   ZZ=           -114.9951
   XY=             -6.3995   XZ=             10.4853   YZ=              2.5272

 Normal termination of Gaussian 16 at Sat May  9 21:10:56 2020.
