 Gaussian 16, Revision A.03,
 Gaussian 16:  ES64L-G16RevA.03 25-Dec-2016

 ---------------------------
 #p hf/6-31g(d) 5d 7f nosymm
 ---------------------------

 --------------
 Atom number=26
 --------------
 Symbolic Z-matrix:
 Charge =  0 Multiplicity = 1

                          Input orientation:
 ---------------------------------------------------------------------
 Center     Atomic      Atomic             Coordinates (Angstroms)
 Number     Number       Type             X           Y           Z
 ---------------------------------------------------------------------
      1          6           0       14.698996    0.384549    0.000153
      2          6           0       13.418878   -0.453176   -0.000137
      3          6           0       12.142861    0.390790    0.000143
      4          6           0       10.862721   -0.446912   -0.000146
      5          6           0        9.586692    0.397040    0.000135
      6          6           0        8.306546   -0.440654   -0.000153
      7          6           0        7.030512    0.403292    0.000129
      8          6           0        5.750363   -0.434398   -0.000156
      9          1           0       15.591444   -0.205737   -0.000043
     10          1           0        4.857898    0.155861    0.000041
     11          1           0       14.700641    1.038620   -0.870254
     12          1           0       14.700632    1.038030    0.871004
     13          1           0       13.417295   -1.106670   -0.870988
     14          1           0       13.417287   -1.107260    0.870270
     15          1           0       12.144465    1.044289    0.870990
     16          1           0       12.144472    1.044878   -0.870262
     17          1           0       10.861129   -1.100414   -0.870992
     18          1           0       10.861122   -1.101003    0.870258
     19          1           0        9.588298    1.051132   -0.870269
     20          1           0        9.588292    1.050544    0.870980
     21          1           0        8.304951   -1.094160   -0.870998
     22          1           0        8.304945   -1.094748    0.870250
     23          1           0        7.032112    1.056799    0.870973
     24          1           0        7.032116    1.057386   -0.870274
     25          1           0        5.748766   -1.087906   -0.871001
     26          1           0        5.748762   -1.088493    0.870246
 ---------------------------------------------------------------------

 SCF Done:  E(RHF) =  -313.434409532     A.U. after   11 cycles

 Alpha  occ. eigenvalues --  -11.20997 -11.20997 -11.20880 -11.20859 -11.20822
 Alpha  occ. eigenvalues --  -11.20784 -11.20231 -11.20230  -1.09111  -1.06136
 Alpha  occ. eigenvalues --   -1.01351  -0.95098  -0.87953  -0.81431  -0.78745
 Alpha  occ. eigenvalues --   -0.78486  -0.65717  -0.63069  -0.59944  -0.59081
 Alpha  occ. eigenvalues --   -0.57811  -0.56729  -0.54470  -0.53194  -0.50193
 Alpha  occ. eigenvalues --   -0.49751  -0.49198  -0.47229  -0.46654  -0.45961
 Alpha  occ. eigenvalues --   -0.45810  -0.45578  -0.42857
 Alpha virt. eigenvalues --    0.22822   0.23895   0.25713   0.26335   0.27080
 Alpha virt. eigenvalues --    0.29450   0.29604   0.30289   0.32635   0.33499
 Alpha virt. eigenvalues --    0.33519   0.34467   0.34903   0.35325   0.35604

 Mulliken charges:
               1
     1  C   -0.489174
     2  C   -0.312258
     3  C   -0.308556
     4  C   -0.310986
     5  C   -0.310986
     6  C   -0.308555
     7  C   -0.312257
     8  C   -0.489173
     9  H    0.170629
    10  H    0.170635
    11  H    0.157804
    12  H    0.157804
    13  H    0.156078
    14  H    0.156078
    15  H    0.155275
    16  H    0.155275
    17  H    0.156017
    18  H    0.156017
    19  H    0.156016
    20  H    0.156017
    21  H    0.155273
    22  H    0.155273
    23  H    0.156076
    24  H    0.156076
    25  H    0.157801
    26  H    0.157802
 Sum of Mulliken charges =  -0.00000

 Dipole moment (field-independent basis, Debye):
    X=              0.0000    Y=             -0.0000    Z=              0.0000  Tot=              0.0000
 Quadrupole moment (field-independent basis, Debye-Ang):
   XX=            -57.0396   YY=            -56.1425   ZZ=            -54.5411
   XY=             -0.7223   XZ=             -0.0002   YZ=             -0.0005

 Normal termination of Gaussian 16 at Thu Aug 29 20:24:42 2019.
