 Gaussian 16, Revision A.03,
 Gaussian 16:  ES64L-G16RevA.03 25-Dec-2016

 ---------------------------
 #p hf/6-31g(d) 5d 7f nosymm
 ---------------------------

 --------------
 Atom number=26
 --------------
 Symbolic Z-matrix:
 Charge =  0 Multiplicity = 1

                          Input orientation:
 ---------------------------------------------------------------------
 Center     Atomic      Atomic             Coordinates (Angstroms)
 Number     Number       Type             X           Y           Z
 ---------------------------------------------------------------------
      1          6           0       -5.750393    0.434477   -0.000044
      2          6           0       -7.030525   -0.403230    0.000030
      3          6           0       -8.306562    0.440692   -0.000190
      4          6           0       -9.586689   -0.397022    0.000053
      5          6           0      -10.862723    0.446905   -0.000154
      6          6           0      -12.142844   -0.390814    0.000168
      7          6           0      -13.418867    0.453124   -0.000280
      8          6           0      -14.698968   -0.384621    0.000211
      9          1           0       -4.857919   -0.155769   -0.000057
     10          1           0      -15.591426    0.205649   -0.000093
     11          1           0      -14.700574   -1.037926    0.871197
     12          1           0       -5.748833    1.088263   -0.870682
     13          1           0       -5.748776    1.088306    0.870562
     14          1           0       -7.032066   -1.057190   -0.870476
     15          1           0       -7.032158   -1.056883    0.870768
     16          1           0       -8.304973    1.094747    0.870246
     17          1           0       -8.304988    1.094252   -0.870997
     18          1           0       -9.588293   -1.051059   -0.870396
     19          1           0       -9.588266   -1.050596    0.870850
     20          1           0      -10.861174    1.100442   -0.870978
     21          1           0      -10.861102    1.100977    0.870268
     22          1           0      -12.144398   -1.045015   -0.870156
     23          1           0      -12.144475   -1.044215    0.871092
     24          1           0      -13.417282    1.107415    0.869976
     25          1           0      -13.417312    1.106429   -0.871276
     26          1           0      -14.700616   -1.038881   -0.870057
 ---------------------------------------------------------------------

 SCF Done:  E(RHF) =  -313.434409423     A.U. after   11 cycles

 Alpha  occ. eigenvalues --  -11.20997 -11.20997 -11.20880 -11.20859 -11.20822
 Alpha  occ. eigenvalues --  -11.20784 -11.20231 -11.20230  -1.09112  -1.06137
 Alpha  occ. eigenvalues --   -1.01351  -0.95098  -0.87953  -0.81431  -0.78745
 Alpha  occ. eigenvalues --   -0.78486  -0.65717  -0.63069  -0.59944  -0.59081
 Alpha  occ. eigenvalues --   -0.57811  -0.56729  -0.54470  -0.53194  -0.50193
 Alpha  occ. eigenvalues --   -0.49751  -0.49198  -0.47229  -0.46654  -0.45961
 Alpha  occ. eigenvalues --   -0.45810  -0.45578  -0.42857
 Alpha virt. eigenvalues --    0.22822   0.23895   0.25713   0.26335   0.27080
 Alpha virt. eigenvalues --    0.29450   0.29604   0.30288   0.32635   0.33500
 Alpha virt. eigenvalues --    0.33519   0.34467   0.34903   0.35326   0.35604

 Mulliken charges:
               1
     1  C   -0.489173
     2  C   -0.312256
     3  C   -0.308555
     4  C   -0.310985
     5  C   -0.310986
     6  C   -0.308554
     7  C   -0.312258
     8  C   -0.489174
     9  H    0.170635
    10  H    0.170629
    11  H    0.157804
    12  H    0.157801
    13  H    0.157801
    14  H    0.156076
    15  H    0.156076
    16  H    0.155272
    17  H    0.155274
    18  H    0.156016
    19  H    0.156016
    20  H    0.156016
    21  H    0.156017
    22  H    0.155274
    23  H    0.155275
    24  H    0.156077
    25  H    0.156078
    26  H    0.157804
 Sum of Mulliken charges =  -0.00000

 Dipole moment (field-independent basis, Debye):
    X=             -0.0000    Y=              0.0000    Z=             -0.0000  Tot=              0.0000
 Quadrupole moment (field-independent basis, Debye-Ang):
   XX=            -57.0398   YY=            -56.1424   ZZ=            -54.5413
   XY=             -0.7223   XZ=              0.0005   YZ=              0.0006

 Normal termination of Gaussian 16 at Thu Aug 29 20:24:49 2019.
