 Gaussian 16, Revision A.03,
 Gaussian 16:  ES64L-G16RevA.03 25-Dec-2016

 ---------------------------
 #p hf/6-31g(d) 5d 7f nosymm
 ---------------------------

 --------------
 Atom number=38
 --------------
 Symbolic Z-matrix:
 Charge =  0 Multiplicity = 1

                          Input orientation:
 ---------------------------------------------------------------------
 Center     Atomic      Atomic             Coordinates (Angstroms)
 Number     Number       Type             X           Y           Z
 ---------------------------------------------------------------------
      1          6           0       14.698996    0.384549    0.000153
      2          6           0       13.418878   -0.453176   -0.000137
      3          6           0       12.142861    0.390790    0.000143
      4          6           0       10.862721   -0.446912   -0.000146
      5          6           0        9.586692    0.397040    0.000135
      6          6           0        8.306546   -0.440654   -0.000153
      7          6           0        7.030512    0.403292    0.000129
      8          6           0        5.750363   -0.434398   -0.000156
      9          6           0        4.474329    0.409546    0.000126
     10          6           0        3.194180   -0.428143   -0.000156
     11          6           0        1.918145    0.415800    0.000124
     12          6           0        0.638000   -0.421895   -0.000149
     13          1           0       15.591444   -0.205737   -0.000043
     14          1           0       -0.254470    0.168357    0.000032
     15          1           0        0.636403   -1.075973    0.870268
     16          1           0       14.700641    1.038620   -0.870254
     17          1           0       14.700632    1.038030    0.871004
     18          1           0       13.417295   -1.106670   -0.870988
     19          1           0       13.417287   -1.107260    0.870270
     20          1           0       12.144465    1.044289    0.870990
     21          1           0       12.144472    1.044878   -0.870262
     22          1           0       10.861129   -1.100414   -0.870992
     23          1           0       10.861122   -1.101003    0.870258
     24          1           0        9.588298    1.051132   -0.870269
     25          1           0        9.588292    1.050544    0.870980
     26          1           0        8.304951   -1.094160   -0.870998
     27          1           0        8.304945   -1.094748    0.870250
     28          1           0        7.032112    1.056799    0.870973
     29          1           0        7.032116    1.057386   -0.870274
     30          1           0        5.748766   -1.087906   -0.871001
     31          1           0        5.748762   -1.088493    0.870246
     32          1           0        4.475930    1.063640   -0.870278
     33          1           0        4.475929    1.063056    0.870968
     34          1           0        3.192581   -1.081654   -0.870997
     35          1           0        3.192579   -1.082235    0.870250
     36          1           0        1.919744    1.069316    0.870962
     37          1           0        1.919742    1.069887   -0.870286
     38          1           0        0.636410   -1.075422   -0.870979
 ---------------------------------------------------------------------

 SCF Done:  E(RHF) =  -469.572490522     A.U. after   11 cycles

 Alpha  occ. eigenvalues --  -11.20977 -11.20976 -11.20839 -11.20838 -11.20813
 Alpha  occ. eigenvalues --  -11.20800 -11.20779 -11.20757 -11.20735 -11.20713
 Alpha  occ. eigenvalues --  -11.20215 -11.20215  -1.09581  -1.08151  -1.05763
 Alpha  occ. eigenvalues --   -1.02497  -0.98447  -0.93754  -0.88658  -0.83681
 Alpha  occ. eigenvalues --   -0.79907  -0.78943  -0.78365  -0.78257  -0.66145
 Alpha  occ. eigenvalues --   -0.64851  -0.62752  -0.60016  -0.59478  -0.59296
 Alpha  occ. eigenvalues --   -0.56908  -0.56872  -0.56422  -0.53921  -0.53619
 Alpha  occ. eigenvalues --   -0.51335  -0.50916  -0.50613  -0.48438  -0.48212
 Alpha  occ. eigenvalues --   -0.46748  -0.46653  -0.45927  -0.45880  -0.45772
 Alpha  occ. eigenvalues --   -0.45771  -0.45730  -0.45387  -0.41562
 Alpha virt. eigenvalues --    0.22655   0.23296   0.24219   0.25496   0.25794
 Alpha virt. eigenvalues --    0.26599   0.27471   0.27536   0.28435   0.30142
 Alpha virt. eigenvalues --    0.30320   0.31445   0.32920   0.33148   0.33583

 Mulliken charges:
               1
     1  C   -0.489151
     2  C   -0.312200
     3  C   -0.308430
     4  C   -0.310889
     5  C   -0.310988
     6  C   -0.311041
     7  C   -0.311040
     8  C   -0.310988
     9  C   -0.310888
    10  C   -0.308429
    11  C   -0.312198
    12  C   -0.489150
    13  H    0.170548
    14  H    0.170555
    15  H    0.157755
    16  H    0.157758
    17  H    0.157758
    18  H    0.156015
    19  H    0.156015
    20  H    0.155159
    21  H    0.155159
    22  H    0.155862
    23  H    0.155862
    24  H    0.155654
    25  H    0.155654
    26  H    0.155628
    27  H    0.155628
    28  H    0.155628
    29  H    0.155628
    30  H    0.155654
    31  H    0.155654
    32  H    0.155861
    33  H    0.155862
    34  H    0.155158
    35  H    0.155157
    36  H    0.156013
    37  H    0.156012
    38  H    0.157755
 Sum of Mulliken charges =  -0.00000

 Dipole moment (field-independent basis, Debye):
    X=              0.0001    Y=             -0.0000    Z=             -0.0000  Tot=              0.0001
 Quadrupole moment (field-independent basis, Debye-Ang):
   XX=            -85.1308   YY=            -83.4641   ZZ=            -80.8842
   XY=             -0.8978   XZ=             -0.0003   YZ=             -0.0009

 Normal termination of Gaussian 16 at Thu Aug 29 20:24:39 2019.
