 Gaussian 16, Revision A.03,
 Gaussian 16:  ES64L-G16RevA.03 25-Dec-2016

 ---------------------------
 #p hf/6-31g(d) 5d 7f nosymm
 ---------------------------

 --------------
 Atom number=38
 --------------
 Symbolic Z-matrix:
 Charge =  0 Multiplicity = 1

                          Input orientation:
 ---------------------------------------------------------------------
 Center     Atomic      Atomic             Coordinates (Angstroms)
 Number     Number       Type             X           Y           Z
 ---------------------------------------------------------------------
      1          6           0       -0.638038    0.422037    0.000110
      2          6           0       -1.918178   -0.415658   -0.000065
      3          6           0       -3.194218    0.428261   -0.000059
      4          6           0       -4.474353   -0.409444   -0.000063
      5          6           0       -5.750393    0.434477   -0.000044
      6          6           0       -7.030525   -0.403230    0.000030
      7          6           0       -8.306562    0.440692   -0.000190
      8          6           0       -9.586689   -0.397022    0.000053
      9          6           0      -10.862723    0.446905   -0.000154
     10          6           0      -12.142844   -0.390814    0.000168
     11          6           0      -13.418867    0.453124   -0.000280
     12          6           0      -14.698968   -0.384621    0.000211
     13          1           0        0.254432   -0.168215   -0.000071
     14          1           0      -15.591426    0.205649   -0.000093
     15          1           0      -14.700574   -1.037926    0.871197
     16          1           0       -4.475936   -1.063266    0.870548
     17          1           0       -0.636465    1.076076   -0.870338
     18          1           0       -0.636417    1.075615    0.870904
     19          1           0       -1.919713   -1.069374   -0.870755
     20          1           0       -1.919821   -1.069558    0.870487
     21          1           0       -3.192634    1.082072    0.870560
     22          1           0       -3.192634    1.082069   -0.870681
     23          1           0       -4.475948   -1.063238   -0.870696
     24          1           0       -5.748833    1.088263   -0.870682
     25          1           0       -5.748776    1.088306    0.870562
     26          1           0       -7.032066   -1.057190   -0.870476
     27          1           0       -7.032158   -1.056883    0.870768
     28          1           0       -8.304973    1.094747    0.870246
     29          1           0       -8.304988    1.094252   -0.870997
     30          1           0       -9.588293   -1.051059   -0.870396
     31          1           0       -9.588266   -1.050596    0.870850
     32          1           0      -10.861174    1.100442   -0.870978
     33          1           0      -10.861102    1.100977    0.870268
     34          1           0      -12.144398   -1.045015   -0.870156
     35          1           0      -12.144475   -1.044215    0.871092
     36          1           0      -13.417282    1.107415    0.869976
     37          1           0      -13.417312    1.106429   -0.871276
     38          1           0      -14.700616   -1.038881   -0.870057
 ---------------------------------------------------------------------

 SCF Done:  E(RHF) =  -469.572490451     A.U. after   11 cycles

 Alpha  occ. eigenvalues --  -11.20977 -11.20976 -11.20839 -11.20838 -11.20813
 Alpha  occ. eigenvalues --  -11.20800 -11.20778 -11.20757 -11.20735 -11.20713
 Alpha  occ. eigenvalues --  -11.20215 -11.20215  -1.09581  -1.08151  -1.05764
 Alpha  occ. eigenvalues --   -1.02497  -0.98448  -0.93754  -0.88658  -0.83681
 Alpha  occ. eigenvalues --   -0.79907  -0.78944  -0.78365  -0.78257  -0.66145
 Alpha  occ. eigenvalues --   -0.64851  -0.62752  -0.60016  -0.59478  -0.59296
 Alpha  occ. eigenvalues --   -0.56909  -0.56871  -0.56422  -0.53921  -0.53618
 Alpha  occ. eigenvalues --   -0.51336  -0.50917  -0.50613  -0.48438  -0.48211
 Alpha  occ. eigenvalues --   -0.46748  -0.46652  -0.45927  -0.45880  -0.45772
 Alpha  occ. eigenvalues --   -0.45771  -0.45730  -0.45387  -0.41562
 Alpha virt. eigenvalues --    0.22655   0.23296   0.24219   0.25496   0.25794
 Alpha virt. eigenvalues --    0.26599   0.27471   0.27536   0.28435   0.30142
 Alpha virt. eigenvalues --    0.30320   0.31445   0.32920   0.33148   0.33583

 Mulliken charges:
               1
     1  C   -0.489150
     2  C   -0.312197
     3  C   -0.308428
     4  C   -0.310887
     5  C   -0.310988
     6  C   -0.311040
     7  C   -0.311040
     8  C   -0.310988
     9  C   -0.310888
    10  C   -0.308428
    11  C   -0.312199
    12  C   -0.489151
    13  H    0.170555
    14  H    0.170548
    15  H    0.157758
    16  H    0.155861
    17  H    0.157755
    18  H    0.157755
    19  H    0.156012
    20  H    0.156012
    21  H    0.155157
    22  H    0.155158
    23  H    0.155861
    24  H    0.155653
    25  H    0.155654
    26  H    0.155628
    27  H    0.155628
    28  H    0.155628
    29  H    0.155629
    30  H    0.155654
    31  H    0.155653
    32  H    0.155861
    33  H    0.155862
    34  H    0.155159
    35  H    0.155159
    36  H    0.156014
    37  H    0.156015
    38  H    0.157758
 Sum of Mulliken charges =  -0.00000

 Dipole moment (field-independent basis, Debye):
    X=             -0.0001    Y=              0.0000    Z=             -0.0000  Tot=              0.0001
 Quadrupole moment (field-independent basis, Debye-Ang):
   XX=            -85.1309   YY=            -83.4640   ZZ=            -80.8845
   XY=             -0.8979   XZ=              0.0004   YZ=              0.0005

 Normal termination of Gaussian 16 at Thu Aug 29 20:24:45 2019.
