 Gaussian 16, Revision A.03,
 Gaussian 16:  ES64L-G16RevA.03 25-Dec-2016

 ---------------------------
 #p hf/6-31g(d) 5d 7f nosymm
 ---------------------------

 --------------
 Atom number=38
 --------------
 Symbolic Z-matrix:
 Charge =  0 Multiplicity = 1

                          Input orientation:
 ---------------------------------------------------------------------
 Center     Atomic      Atomic             Coordinates (Angstroms)
 Number     Number       Type             X           Y           Z
 ---------------------------------------------------------------------
      1          6           0       -5.750393    0.434477   -0.000044
      2          6           0       -7.030525   -0.403230    0.000030
      3          6           0       -8.306562    0.440692   -0.000190
      4          6           0       -9.586689   -0.397022    0.000053
      5          6           0      -10.862723    0.446905   -0.000154
      6          6           0      -12.142844   -0.390814    0.000168
      7          6           0      -13.418867    0.453124   -0.000280
      8          6           0      -14.698968   -0.384621    0.000211
      9          6           0      -15.974986    0.459334   -0.000224
     10          6           0      -17.255053   -0.378198    0.000349
     11          6           0      -18.531572    0.464871   -0.000347
     12          6           0      -19.805822   -0.378986    0.000419
     13          1           0       -4.857919   -0.155769   -0.000057
     14          1           0      -19.852399   -1.017925    0.877881
     15          1           0      -14.700574   -1.037926    0.871197
     16          1           0       -5.748833    1.088263   -0.870682
     17          1           0       -5.748776    1.088306    0.870562
     18          1           0       -7.032066   -1.057190   -0.870476
     19          1           0       -7.032158   -1.056883    0.870768
     20          1           0       -8.304973    1.094747    0.870246
     21          1           0       -8.304988    1.094252   -0.870997
     22          1           0       -9.588293   -1.051059   -0.870396
     23          1           0       -9.588266   -1.050596    0.870850
     24          1           0      -10.861174    1.100442   -0.870978
     25          1           0      -10.861102    1.100977    0.870268
     26          1           0      -12.144398   -1.045015   -0.870156
     27          1           0      -12.144475   -1.044215    0.871092
     28          1           0      -13.417282    1.107415    0.869976
     29          1           0      -13.417312    1.106429   -0.871276
     30          1           0      -14.700616   -1.038881   -0.870057
     31          1           0      -15.973511    1.112604   -0.871264
     32          1           0      -15.973421    1.113635    0.870042
     33          1           0      -17.257642   -1.032795   -0.869819
     34          1           0      -17.257716   -1.031477    0.871507
     35          1           0      -18.531601    1.118572    0.869391
     36          1           0      -18.531646    1.117046   -0.871231
     37          1           0      -20.693056    0.246810   -0.000065
     38          1           0      -19.852481   -1.019397   -0.875965
 ---------------------------------------------------------------------

 SCF Done:  E(RHF) =  -469.573104327     A.U. after   11 cycles

 Alpha  occ. eigenvalues --  -11.20995 -11.20974 -11.20836 -11.20811 -11.20802
 Alpha  occ. eigenvalues --  -11.20784 -11.20764 -11.20743 -11.20723 -11.20703
 Alpha  occ. eigenvalues --  -11.20328 -11.20214  -1.09572  -1.08142  -1.05755
 Alpha  occ. eigenvalues --   -1.02485  -0.98429  -0.93731  -0.88642  -0.83679
 Alpha  occ. eigenvalues --   -0.79914  -0.78935  -0.78355  -0.78256  -0.66138
 Alpha  occ. eigenvalues --   -0.64850  -0.62766  -0.60049  -0.59404  -0.59044
 Alpha  occ. eigenvalues --   -0.56923  -0.56895  -0.56268  -0.53932  -0.53687
 Alpha  occ. eigenvalues --   -0.51257  -0.50882  -0.50695  -0.48497  -0.48294
 Alpha  occ. eigenvalues --   -0.46791  -0.46711  -0.45948  -0.45880  -0.45766
 Alpha  occ. eigenvalues --   -0.45727  -0.45634  -0.45382  -0.41500
 Alpha virt. eigenvalues --    0.22659   0.23297   0.24216   0.25491   0.25805
 Alpha virt. eigenvalues --    0.26607   0.27490   0.27525   0.28433   0.30159
 Alpha virt. eigenvalues --    0.30273   0.31416   0.32753   0.33168   0.33485

 Mulliken charges:
               1
     1  C   -0.489148
     2  C   -0.312194
     3  C   -0.308424
     4  C   -0.310882
     5  C   -0.310977
     6  C   -0.311029
     7  C   -0.311016
     8  C   -0.310863
     9  C   -0.311116
    10  C   -0.307983
    11  C   -0.310941
    12  C   -0.490458
    13  H    0.170548
    14  H    0.160116
    15  H    0.155616
    16  H    0.157751
    17  H    0.157751
    18  H    0.156009
    19  H    0.156009
    20  H    0.155149
    21  H    0.155150
    22  H    0.155854
    23  H    0.155854
    24  H    0.155634
    25  H    0.155635
    26  H    0.155609
    27  H    0.155610
    28  H    0.155567
    29  H    0.155567
    30  H    0.155617
    31  H    0.155564
    32  H    0.155565
    33  H    0.155048
    34  H    0.155048
    35  H    0.157133
    36  H    0.157133
    37  H    0.164375
    38  H    0.160117
 Sum of Mulliken charges =  -0.00000

 Dipole moment (field-independent basis, Debye):
    X=             -0.0069    Y=             -0.0013    Z=             -0.0000  Tot=              0.0070
 Quadrupole moment (field-independent basis, Debye-Ang):
   XX=            -85.0170   YY=            -83.4384   ZZ=            -80.8373
   XY=             -0.7961   XZ=              0.0008   YZ=              0.0013

 Normal termination of Gaussian 16 at Thu Aug 29 20:24:45 2019.
