 Gaussian 16, Revision A.03,
 Gaussian 16:  ES64L-G16RevA.03 25-Dec-2016

 ---------------------------
 #p hf/6-31g(d) 5d 7f nosymm
 ---------------------------

 --------------
 Atom number=26
 --------------
 Symbolic Z-matrix:
 Charge =  0 Multiplicity = 1

                          Input orientation:
 ---------------------------------------------------------------------
 Center     Atomic      Atomic             Coordinates (Angstroms)
 Number     Number       Type             X           Y           Z
 ---------------------------------------------------------------------
      1          6           0       -0.638038    0.422037    0.000110
      2          6           0       -1.918178   -0.415658   -0.000065
      3          6           0       -3.194218    0.428261   -0.000059
      4          6           0       -4.474353   -0.409444   -0.000063
      5          6           0       -5.750393    0.434477   -0.000044
      6          6           0       -7.030525   -0.403230    0.000030
      7          6           0       -8.306562    0.440692   -0.000190
      8          6           0       -9.586689   -0.397022    0.000053
      9          1           0        0.254432   -0.168215   -0.000071
     10          1           0      -10.479160    0.193229   -0.000092
     11          1           0       -4.475936   -1.063266    0.870548
     12          1           0       -0.636465    1.076076   -0.870338
     13          1           0       -0.636417    1.075615    0.870904
     14          1           0       -1.919713   -1.069374   -0.870755
     15          1           0       -1.919821   -1.069558    0.870487
     16          1           0       -3.192634    1.082072    0.870560
     17          1           0       -3.192634    1.082069   -0.870681
     18          1           0       -4.475948   -1.063238   -0.870696
     19          1           0       -5.748833    1.088263   -0.870682
     20          1           0       -5.748776    1.088306    0.870562
     21          1           0       -7.032066   -1.057190   -0.870476
     22          1           0       -7.032158   -1.056883    0.870768
     23          1           0       -8.304973    1.094747    0.870246
     24          1           0       -8.304988    1.094252   -0.870997
     25          1           0       -9.588293   -1.051059   -0.870396
     26          1           0       -9.588266   -1.050596    0.870850
 ---------------------------------------------------------------------

 SCF Done:  E(RHF) =  -313.434408171     A.U. after   11 cycles

 Alpha  occ. eigenvalues --  -11.20997 -11.20997 -11.20880 -11.20859 -11.20822
 Alpha  occ. eigenvalues --  -11.20784 -11.20231 -11.20231  -1.09112  -1.06136
 Alpha  occ. eigenvalues --   -1.01351  -0.95098  -0.87953  -0.81431  -0.78745
 Alpha  occ. eigenvalues --   -0.78486  -0.65716  -0.63069  -0.59944  -0.59081
 Alpha  occ. eigenvalues --   -0.57811  -0.56729  -0.54470  -0.53194  -0.50193
 Alpha  occ. eigenvalues --   -0.49752  -0.49198  -0.47229  -0.46654  -0.45961
 Alpha  occ. eigenvalues --   -0.45810  -0.45578  -0.42858
 Alpha virt. eigenvalues --    0.22822   0.23895   0.25713   0.26335   0.27080
 Alpha virt. eigenvalues --    0.29450   0.29604   0.30289   0.32635   0.33499
 Alpha virt. eigenvalues --    0.33519   0.34466   0.34903   0.35325   0.35604

 Mulliken charges:
               1
     1  C   -0.489173
     2  C   -0.312256
     3  C   -0.308554
     4  C   -0.310985
     5  C   -0.310985
     6  C   -0.308554
     7  C   -0.312256
     8  C   -0.489173
     9  H    0.170636
    10  H    0.170635
    11  H    0.156016
    12  H    0.157801
    13  H    0.157801
    14  H    0.156076
    15  H    0.156076
    16  H    0.155272
    17  H    0.155273
    18  H    0.156016
    19  H    0.156016
    20  H    0.156017
    21  H    0.155274
    22  H    0.155273
    23  H    0.156076
    24  H    0.156077
    25  H    0.157801
    26  H    0.157801
 Sum of Mulliken charges =  -0.00000

 Dipole moment (field-independent basis, Debye):
    X=             -0.0000    Y=              0.0000    Z=             -0.0000  Tot=              0.0000
 Quadrupole moment (field-independent basis, Debye-Ang):
   XX=            -57.0402   YY=            -56.1425   ZZ=            -54.5415
   XY=             -0.7224   XZ=              0.0001   YZ=              0.0001

 Normal termination of Gaussian 16 at Thu Aug 29 20:24:45 2019.
