 Gaussian 16, Revision A.03,
 Gaussian 16:  ES64L-G16RevA.03 25-Dec-2016

 ---------------------------
 #p hf/6-31g(d) 5d 7f nosymm
 ---------------------------

 --------------
 Atom number=26
 --------------
 Symbolic Z-matrix:
 Charge =  0 Multiplicity = 1

                          Input orientation:
 ---------------------------------------------------------------------
 Center     Atomic      Atomic             Coordinates (Angstroms)
 Number     Number       Type             X           Y           Z
 ---------------------------------------------------------------------
      1          6           0        9.586692    0.397040    0.000135
      2          6           0        8.306546   -0.440654   -0.000153
      3          6           0        7.030512    0.403292    0.000129
      4          6           0        5.750363   -0.434398   -0.000156
      5          6           0        4.474329    0.409546    0.000126
      6          6           0        3.194180   -0.428143   -0.000156
      7          6           0        1.918145    0.415800    0.000124
      8          6           0        0.638000   -0.421895   -0.000149
      9          1           0       10.479154   -0.193225   -0.000062
     10          1           0       -0.254470    0.168357    0.000032
     11          1           0        0.636403   -1.075973    0.870268
     12          1           0        9.588298    1.051132   -0.870269
     13          1           0        9.588292    1.050544    0.870980
     14          1           0        8.304951   -1.094160   -0.870998
     15          1           0        8.304945   -1.094748    0.870250
     16          1           0        7.032112    1.056799    0.870973
     17          1           0        7.032116    1.057386   -0.870274
     18          1           0        5.748766   -1.087906   -0.871001
     19          1           0        5.748762   -1.088493    0.870246
     20          1           0        4.475930    1.063640   -0.870278
     21          1           0        4.475929    1.063056    0.870968
     22          1           0        3.192581   -1.081654   -0.870997
     23          1           0        3.192579   -1.082235    0.870250
     24          1           0        1.919744    1.069316    0.870962
     25          1           0        1.919742    1.069887   -0.870286
     26          1           0        0.636410   -1.075422   -0.870979
 ---------------------------------------------------------------------

 SCF Done:  E(RHF) =  -313.434408212     A.U. after   11 cycles

 Alpha  occ. eigenvalues --  -11.20997 -11.20997 -11.20880 -11.20859 -11.20822
 Alpha  occ. eigenvalues --  -11.20784 -11.20231 -11.20231  -1.09111  -1.06136
 Alpha  occ. eigenvalues --   -1.01351  -0.95098  -0.87953  -0.81431  -0.78745
 Alpha  occ. eigenvalues --   -0.78486  -0.65716  -0.63069  -0.59944  -0.59081
 Alpha  occ. eigenvalues --   -0.57811  -0.56729  -0.54470  -0.53194  -0.50193
 Alpha  occ. eigenvalues --   -0.49752  -0.49197  -0.47229  -0.46654  -0.45961
 Alpha  occ. eigenvalues --   -0.45810  -0.45578  -0.42857
 Alpha virt. eigenvalues --    0.22822   0.23895   0.25713   0.26335   0.27080
 Alpha virt. eigenvalues --    0.29450   0.29604   0.30289   0.32635   0.33499
 Alpha virt. eigenvalues --    0.33519   0.34466   0.34903   0.35325   0.35604

 Mulliken charges:
               1
     1  C   -0.489173
     2  C   -0.312257
     3  C   -0.308555
     4  C   -0.310986
     5  C   -0.310985
     6  C   -0.308555
     7  C   -0.312257
     8  C   -0.489173
     9  H    0.170635
    10  H    0.170636
    11  H    0.157801
    12  H    0.157802
    13  H    0.157802
    14  H    0.156076
    15  H    0.156076
    16  H    0.155273
    17  H    0.155273
    18  H    0.156016
    19  H    0.156017
    20  H    0.156017
    21  H    0.156017
    22  H    0.155274
    23  H    0.155273
    24  H    0.156076
    25  H    0.156076
    26  H    0.157802
 Sum of Mulliken charges =  -0.00000

 Dipole moment (field-independent basis, Debye):
    X=              0.0000    Y=             -0.0000    Z=             -0.0000  Tot=              0.0000
 Quadrupole moment (field-independent basis, Debye-Ang):
   XX=            -57.0402   YY=            -56.1426   ZZ=            -54.5413
   XY=             -0.7223   XZ=             -0.0002   YZ=             -0.0005

 Normal termination of Gaussian 16 at Thu Aug 29 20:24:42 2019.
