 Gaussian 16, Revision A.03,
 Gaussian 16:  ES64L-G16RevA.03 25-Dec-2016

 ---------------------------
 #p hf/6-31g(d) 5d 7f nosymm
 ---------------------------

 --------------
 Atom number=38
 --------------
 Symbolic Z-matrix:
 Charge =  0 Multiplicity = 1

                          Input orientation:
 ---------------------------------------------------------------------
 Center     Atomic      Atomic             Coordinates (Angstroms)
 Number     Number       Type             X           Y           Z
 ---------------------------------------------------------------------
      1          6           0       19.805866    0.378823    0.000178
      2          6           0       18.531600   -0.465018   -0.000115
      3          6           0       17.255090    0.378081    0.000164
      4          6           0       15.975006   -0.459434   -0.000127
      5          6           0       14.698996    0.384549    0.000153
      6          6           0       13.418878   -0.453176   -0.000137
      7          6           0       12.142861    0.390790    0.000143
      8          6           0       10.862721   -0.446912   -0.000146
      9          6           0        9.586692    0.397040    0.000135
     10          6           0        8.306546   -0.440654   -0.000153
     11          6           0        7.030512    0.403292    0.000129
     12          6           0        5.750363   -0.434398   -0.000156
     13          1           0        4.857898    0.155861    0.000041
     14          1           0       20.693090   -0.246986   -0.000030
     15          1           0       19.852490    1.018793   -0.876528
     16          1           0       19.852481    1.018197    0.877318
     17          1           0       18.531643   -1.117652   -0.870651
     18          1           0       18.531634   -1.118243    0.869977
     19          1           0       17.257726    1.031717    0.871051
     20          1           0       17.257735    1.032308   -0.870279
     21          1           0       15.973479   -1.112916   -0.871004
     22          1           0       15.973470   -1.113507    0.870307
     23          1           0       14.700641    1.038620   -0.870254
     24          1           0       14.700632    1.038030    0.871004
     25          1           0       13.417295   -1.106670   -0.870988
     26          1           0       13.417287   -1.107260    0.870270
     27          1           0       12.144465    1.044289    0.870990
     28          1           0       12.144472    1.044878   -0.870262
     29          1           0       10.861129   -1.100414   -0.870992
     30          1           0       10.861122   -1.101003    0.870258
     31          1           0        9.588298    1.051132   -0.870269
     32          1           0        9.588292    1.050544    0.870980
     33          1           0        8.304951   -1.094160   -0.870998
     34          1           0        8.304945   -1.094748    0.870250
     35          1           0        7.032112    1.056799    0.870973
     36          1           0        7.032116    1.057386   -0.870274
     37          1           0        5.748766   -1.087906   -0.871001
     38          1           0        5.748762   -1.088493    0.870246
 ---------------------------------------------------------------------

 SCF Done:  E(RHF) =  -469.573104357     A.U. after   11 cycles

 Alpha  occ. eigenvalues --  -11.20995 -11.20974 -11.20836 -11.20811 -11.20802
 Alpha  occ. eigenvalues --  -11.20784 -11.20764 -11.20743 -11.20723 -11.20703
 Alpha  occ. eigenvalues --  -11.20328 -11.20214  -1.09571  -1.08141  -1.05755
 Alpha  occ. eigenvalues --   -1.02485  -0.98429  -0.93731  -0.88642  -0.83679
 Alpha  occ. eigenvalues --   -0.79914  -0.78935  -0.78355  -0.78256  -0.66138
 Alpha  occ. eigenvalues --   -0.64850  -0.62766  -0.60049  -0.59404  -0.59044
 Alpha  occ. eigenvalues --   -0.56923  -0.56894  -0.56268  -0.53932  -0.53688
 Alpha  occ. eigenvalues --   -0.51257  -0.50882  -0.50696  -0.48496  -0.48294
 Alpha  occ. eigenvalues --   -0.46790  -0.46711  -0.45948  -0.45880  -0.45766
 Alpha  occ. eigenvalues --   -0.45727  -0.45634  -0.45382  -0.41500
 Alpha virt. eigenvalues --    0.22659   0.23297   0.24216   0.25491   0.25805
 Alpha virt. eigenvalues --    0.26607   0.27490   0.27525   0.28433   0.30159
 Alpha virt. eigenvalues --    0.30273   0.31416   0.32753   0.33168   0.33485

 Mulliken charges:
               1
     1  C   -0.490458
     2  C   -0.310942
     3  C   -0.307984
     4  C   -0.311117
     5  C   -0.310863
     6  C   -0.311017
     7  C   -0.311030
     8  C   -0.310978
     9  C   -0.310882
    10  C   -0.308425
    11  C   -0.312195
    12  C   -0.489148
    13  H    0.170548
    14  H    0.164375
    15  H    0.160117
    16  H    0.160117
    17  H    0.157134
    18  H    0.157134
    19  H    0.155049
    20  H    0.155049
    21  H    0.155565
    22  H    0.155565
    23  H    0.155617
    24  H    0.155617
    25  H    0.155567
    26  H    0.155567
    27  H    0.155610
    28  H    0.155610
    29  H    0.155635
    30  H    0.155635
    31  H    0.155854
    32  H    0.155855
    33  H    0.155150
    34  H    0.155150
    35  H    0.156009
    36  H    0.156009
    37  H    0.157751
    38  H    0.157752
 Sum of Mulliken charges =  -0.00000

 Dipole moment (field-independent basis, Debye):
    X=              0.0069    Y=              0.0013    Z=              0.0000  Tot=              0.0070
 Quadrupole moment (field-independent basis, Debye-Ang):
   XX=            -85.0169   YY=            -83.4385   ZZ=            -80.8371
   XY=             -0.7961   XZ=             -0.0003   YZ=             -0.0009

 Normal termination of Gaussian 16 at Thu Aug 29 20:24:39 2019.
