 Gaussian 16, Revision A.03,
 Gaussian 16:  ES64L-G16RevA.03 25-Dec-2016

 -------------------
 #p HF/6-31g** 5D 7F
 -------------------

 ----------------------------------
 gebf{dis=3.0 frag=auto charge=npa}
 ----------------------------------
 Symbolic Z-matrix:
 Charge =  0 Multiplicity = 1

                         Standard orientation:
 ---------------------------------------------------------------------
 Center     Atomic      Atomic             Coordinates (Angstroms)
 Number     Number       Type             X           Y           Z
 ---------------------------------------------------------------------
      1          8           0       -0.273552   -0.141154   -0.113144
      2          1           0        0.396381    0.542511   -0.107862
      3          1           0        0.104471   -0.843499   -0.642334
      4          8           0        0.771961   -1.957816   -1.879234
      5          1           0        1.619369   -2.401170   -1.839587
      6          1           0        0.676122   -1.704978   -2.797451
      7          8           0        2.251937    1.098505   -0.093953
      8          1           0        2.107551    1.691638   -0.831230
      9          1           0        2.866696    1.564890    0.472430
     10          8           0       -3.142980   -0.673303    0.360351
     11          1           0       -3.353250   -0.801314    1.285355
     12          1           0       -2.288848   -0.241264    0.365960
     13          8           0       -0.882219    2.751033    0.472407
     14          1           0       -1.223198    3.645369    0.461073
     15          1           0       -0.557223    2.606825   -0.416307
     16          8           0       -2.440191    0.525251   -2.194781
     17          1           0       -2.350095    0.418626   -1.247813
     18          1           0       -2.572056   -0.363497   -2.524885
     19          8           0        0.259353    2.256170   -2.132160
     20          1           0        1.075609    2.193356   -2.628158
     21          1           0       -0.276154    1.533109   -2.458729
     22          8           0        1.544597   -1.075742    2.841856
     23          1           0        1.221199   -0.781100    1.990484
     24          1           0        1.785699   -1.991631    2.703120
     25          8           0       -2.091116   -3.382252    0.287006
     26          1           0       -2.428649   -3.445676    1.180471
     27          1           0       -2.280502   -2.482101    0.022254
     28          8           0       -2.295937   -2.285672   -2.781528
     29          1           0       -1.417333   -2.412125   -2.423343
     30          1           0       -2.163272   -2.227379   -3.727696
     31          8           0       -3.129132   -2.478064    2.696384
     32          1           0       -3.862809   -2.648740    3.286996
     33          1           0       -2.431285   -3.054517    3.007744
     34          8           0       -3.736510    2.623206    1.382036
     35          1           0       -2.868168    2.530269    1.773924
     36          1           0       -4.197695    1.821166    1.627546
     37          8           0        0.812410    3.439908    2.756391
     38          1           0        0.071250    4.032876    2.880097
     39          1           0        0.571418    2.909775    1.996712
     40          8           0        2.526763    1.693978   -3.497435
     41          1           0        2.464441    1.501618   -4.433035
     42          1           0        3.401725    2.066006   -3.386682
     43          8           0        0.473805   -1.496686   -4.765538
     44          1           0        0.795585   -0.628452   -5.008144
     45          1           0       -0.463007   -1.468401   -4.959996
     46          8           0       -0.602209   -1.268622    4.834845
     47          1           0        0.168942   -1.291668    5.401439
     48          1           0       -0.257571   -1.417295    3.954303
     49          8           0       -1.088485   -3.935121    3.277772
     50          1           0       -0.251573   -3.891319    2.815288
     51          1           0       -0.848726   -4.044300    4.198004
     52          8           0        1.808477    1.205450    4.409225
     53          1           0        1.719938    1.808208    3.670932
     54          1           0        1.800875    0.335162    4.010759
     55          8           0        3.037662   -3.798683   -1.943808
     56          1           0        2.571841   -4.590040   -2.213989
     57          1           0        3.921620   -4.100266   -1.734286
     58          8           0        2.037453    4.567235    0.542165
     59          1           0        2.955072    4.297304    0.505464
     60          1           0        1.771053    4.389971    1.444296
     61          8           0       -4.272708    0.418541    3.298585
     62          1           0       -4.632453   -0.400522    2.958065
     63          1           0       -4.060898    0.226215    4.212029
     64          8           0        4.237818   -2.964671    1.020329
     65          1           0        4.391139   -2.019838    1.024331
     66          1           0        4.745022   -3.286947    0.275269
     67          8           0       -5.560175    1.077169   -0.664330
     68          1           0       -6.017200    0.974050   -1.499033
     69          1           0       -4.938485    0.349759   -0.639655
     70          8           0        4.623212    2.036076    1.432853
     71          1           0        5.021194    2.719488    0.893603
     72          1           0        4.307141    2.497123    2.209877
     73          8           0       -0.565356   -5.721502    0.005040
     74          1           0        0.196581   -5.862480   -0.556928
     75          1           0       -0.813860   -4.810501   -0.151661
     76          8           0       -3.966804    2.248785   -3.622475
     77          1           0       -4.530839    2.813679   -3.094277
     78          1           0       -3.271204    1.976874   -3.023779
     79          8           0       -1.920411    5.276297    0.116657
     80          1           0       -1.056485    5.682868    0.184217
     81          1           0       -2.217404    5.489380   -0.768003
     82          8           0        0.253817    5.415841   -1.499829
     83          1           0        0.272497    4.611432   -2.018297
     84          1           0        0.911198    5.277225   -0.818014
     85          8           0       -4.958344   -2.966889   -2.104974
     86          1           0       -4.049869   -2.762415   -2.326552
     87          1           0       -4.936257   -3.880728   -1.820998
     88          8           0        5.570883    0.076947   -1.290125
     89          1           0        4.911335    0.276721   -0.625806
     90          1           0        5.172906   -0.610418   -1.824332
     91          8           0        4.683577   -1.814135   -2.999526
     92          1           0        4.382062   -1.472682   -3.841388
     93          1           0        3.899303   -2.187230   -2.597098
     94          8           0        5.195611   -0.562489    2.279692
     95          1           0        6.099904   -0.507314    2.588630
     96          1           0        4.933565    0.347580    2.140632
 ---------------------------------------------------------------------

 SCF Done:  E(RHF) =  -2432.94717567     A.U. after   11 cycles

 The electronic state is 1-A.
 Alpha  occ. eigenvalues --  -20.65054 -20.64998 -20.64712 -20.64103 -20.61191
 Alpha  occ. eigenvalues --  -20.61018 -20.59667 -20.59602 -20.59200 -20.58909
 Alpha  occ. eigenvalues --  -20.58748 -20.57784 -20.57664 -20.55829 -20.55183
 Alpha  occ. eigenvalues --  -20.54765 -20.54580 -20.53872 -20.53833 -20.53801
 Alpha  occ. eigenvalues --  -20.53619 -20.53577 -20.53506 -20.52949 -20.52707
 Alpha  occ. eigenvalues --  -20.51566 -20.51261 -20.50520 -20.50087 -20.49264
 Alpha  occ. eigenvalues --  -20.49093 -20.46563  -1.43497  -1.43470  -1.42965
 Alpha  occ. eigenvalues --   -1.42657  -1.39814  -1.39778  -1.38522  -1.38520
 Alpha  occ. eigenvalues --   -1.38333  -1.37609  -1.37245  -1.36529  -1.36140
 Alpha  occ. eigenvalues --   -1.34524  -1.33945  -1.33397  -1.33207  -1.33185
 Alpha  occ. eigenvalues --   -1.32969  -1.32648  -1.32246  -1.31921  -1.31849
 Alpha  occ. eigenvalues --   -1.31388  -1.31294  -1.29959  -1.29945  -1.29079
 Alpha  occ. eigenvalues --   -1.28869  -1.27820  -1.27380  -1.24929  -0.79678
 Alpha  occ. eigenvalues --   -0.79571  -0.79503  -0.79113  -0.76756  -0.75722
 Alpha  occ. eigenvalues --   -0.75481  -0.74797  -0.74736  -0.74274  -0.74165
 Alpha  occ. eigenvalues --   -0.73315  -0.73185  -0.72617  -0.72218  -0.71286
 Alpha  occ. eigenvalues --   -0.70872  -0.70716  -0.70341  -0.70242  -0.69403
 Alpha  occ. eigenvalues --   -0.68775  -0.68384  -0.68081  -0.67909  -0.67566
 Alpha  occ. eigenvalues --   -0.67384  -0.67231  -0.66750  -0.66445  -0.66355
 Alpha  occ. eigenvalues --   -0.65575  -0.65530  -0.65433  -0.64075  -0.62759
 Alpha  occ. eigenvalues --   -0.62118  -0.61951  -0.61746  -0.61602  -0.61338
 Alpha  occ. eigenvalues --   -0.61027  -0.60710  -0.60081  -0.59074  -0.58984
 Alpha  occ. eigenvalues --   -0.58269  -0.58107  -0.58024  -0.57408  -0.57351
 Alpha  occ. eigenvalues --   -0.57292  -0.57145  -0.56527  -0.56524  -0.56218
 Alpha  occ. eigenvalues --   -0.55730  -0.55546  -0.55217  -0.54632  -0.54531
 Alpha  occ. eigenvalues --   -0.53930  -0.53846  -0.53398  -0.53332  -0.53097
 Alpha  occ. eigenvalues --   -0.53021  -0.52702  -0.52023  -0.51939  -0.51836
 Alpha  occ. eigenvalues --   -0.51543  -0.51491  -0.50919  -0.50645  -0.50328
 Alpha  occ. eigenvalues --   -0.50035  -0.49057  -0.49044  -0.48876  -0.48352
 Alpha  occ. eigenvalues --   -0.48338  -0.48166  -0.47550  -0.47133  -0.47105
 Alpha  occ. eigenvalues --   -0.46875  -0.46733  -0.46097  -0.46015  -0.45681
 Alpha  occ. eigenvalues --   -0.44749  -0.44428  -0.43570  -0.42949  -0.40406
 Alpha virt. eigenvalues --    0.08521   0.10532   0.12516   0.13271   0.15451
 Alpha virt. eigenvalues --    0.18290   0.18626   0.19425   0.19721   0.20416
 Alpha virt. eigenvalues --    0.20762   0.21424   0.23129   0.23468   0.24013

 Mulliken charges:
               1
     1  O   -0.792822
     2  H    0.392631
     3  H    0.395859
     4  O   -0.763445
     5  H    0.392609
     6  H    0.367053
     7  O   -0.733619
     8  H    0.352974
     9  H    0.364946
    10  O   -0.748233
    11  H    0.384900
    12  H    0.379961
    13  O   -0.791359
    14  H    0.394867
    15  H    0.382213
    16  O   -0.760452
    17  H    0.390905
    18  H    0.369668
    19  O   -0.762378
    20  H    0.397370
    21  H    0.363736
    22  O   -0.710889
    23  H    0.370744
    24  H    0.358706
    25  O   -0.778948
    26  H    0.381649
    27  H    0.376255
    28  O   -0.694132
    29  H    0.380056
    30  H    0.342114
    31  O   -0.757008
    32  H    0.328466
    33  H    0.434156
    34  O   -0.714479
    35  H    0.329260
    36  H    0.366886
    37  O   -0.730516
    38  H    0.369649
    39  H    0.388166
    40  O   -0.700465
    41  H    0.356126
    42  H    0.373692
    43  O   -0.683774
    44  H    0.354897
    45  H    0.358300
    46  O   -0.713257
    47  H    0.337172
    48  H    0.357922
    49  O   -0.697777
    50  H    0.362141
    51  H    0.363218
    52  O   -0.760152
    53  H    0.342119
    54  H    0.385903
    55  O   -0.702747
    56  H    0.369253
    57  H    0.369115
    58  O   -0.725443
    59  H    0.318824
    60  H    0.379774
    61  O   -0.681279
    62  H    0.340896
    63  H    0.353056
    64  O   -0.712855
    65  H    0.376293
    66  H    0.317459
    67  O   -0.707944
    68  H    0.330186
    69  H    0.364545
    70  O   -0.696814
    71  H    0.367742
    72  H    0.375567
    73  O   -0.713939
    74  H    0.306276
    75  H    0.376905
    76  O   -0.746792
    77  H    0.335344
    78  H    0.386617
    79  O   -0.689124
    80  H    0.352083
    81  H    0.361273
    82  O   -0.756474
    83  H    0.352228
    84  H    0.386371
    85  O   -0.735001
    86  H    0.390360
    87  H    0.329193
    88  O   -0.764164
    89  H    0.325984
    90  H    0.392768
    91  O   -0.710475
    92  H    0.346346
    93  H    0.378108
    94  O   -0.722844
    95  H    0.340518
    96  H    0.389225
 Sum of Mulliken charges =  -0.00000

 Dipole moment (field-independent basis, Debye):
    X=             17.8418    Y=             -4.5577    Z=             -8.5490  Tot=             20.3024
 Quadrupole moment (field-independent basis, Debye-Ang):
   XX=           -233.3708   YY=           -202.6563   ZZ=           -161.3745
   XY=             30.7814   XZ=            -33.7932   YZ=              2.6637

 Normal termination of Gaussian 16 at Fri May 15 22:38:58 2020.
