 Gaussian 16, Revision A.03,
 Gaussian 16:  ES64L-G16RevA.03 25-Dec-2016

 --------------------------------
 #p hf/6-31g(d,p) 5d 7f geom=conn
 --------------------------------

 ----------------------------------
 gebf{dis=3.0 frag=conn charge=npa}
 ----------------------------------
 Symbolic Z-matrix:
 Charge =  1 Multiplicity = 1

                         Standard orientation:
 ---------------------------------------------------------------------
 Center     Atomic      Atomic             Coordinates (Angstroms)
 Number     Number       Type             X           Y           Z
 ---------------------------------------------------------------------
      1          6           0       -6.791629   -0.025446    0.484081
      2          8           0       -6.818577   -0.685507    1.555125
      3          7           0       -5.670309    0.023743   -0.243429
      4          1           0       -5.649559    0.547604   -1.094977
      5          6           0       -4.468443   -0.691705    0.208458
      6          6           0       -3.213735    0.056092   -0.278940
      7          8           0       -3.251074    0.715443   -1.350122
      8          7           0       -2.084318    0.005489    0.435923
      9          1           0       -2.053547   -0.519765    1.286309
     10          6           0       -0.888584    0.722819   -0.029041
     11          6           0        0.373805   -0.021980    0.442925
     12          8           0        0.351329   -0.683157    1.513413
     13          7           0        1.494386    0.034500   -0.285314
     14          1           0        1.511362    0.558767   -1.136711
     15          6           0        2.700919   -0.673562    0.165875
     16          6           0        3.951132    0.082310   -0.321188
     17          8           0        3.910292    0.741341   -1.392411
     18          7           0        5.080328    0.038790    0.394593
     19          1           0        5.113297   -0.486198    1.245027
     20          6           0        6.272618    0.763128   -0.068662
     21          6           0        7.538357    0.025597    0.406174
     22          8           0        7.516788   -0.635982    1.476408
     23          7           0        8.660768    0.088454   -0.318905
     24          1           0        8.677763    0.614176   -1.169379
     25          6           0        9.869292   -0.615029    0.134495
     26          6           0       11.117845    0.146516   -0.347866
     27          8           0       11.077064    0.808357   -1.417412
     28          1           0       -4.462504   -0.739617    1.277402
     29          1           0       -0.895090    0.771613   -1.097897
     30          1           0        2.707296   -0.721867    1.234745
     31          1           0        6.267798    0.811606   -1.137561
     32          1           0        9.872940   -0.665179    1.203314
     33          7           0       -9.249213    0.015316    0.475628
     34          1           0       -8.055245    0.774027   -1.058302
     35          6           0       -8.049570    0.726110    0.010622
     36          6           0      -10.378353    0.070277   -0.239464
     37          8           0      -10.413408    0.730354   -1.310257
     38          1           0       -9.221205   -0.509272    1.326534
     39          6           0        9.881557   -2.041204   -0.446405
     40          1           0        9.014066   -2.570341   -0.111239
     41          1           0       10.761249   -2.553177   -0.116409
     42          1           0        9.877912   -1.991011   -1.515219
     43          6           0        6.262777    2.190247    0.509984
     44          1           0        5.383344    2.702774    0.180089
     45          1           0        7.130563    2.717754    0.173025
     46          1           0        6.267509    2.141763    1.578866
     47          6           0        2.705478   -2.100859   -0.412405
     48          1           0        1.836607   -2.625618   -0.073866
     49          1           0        3.583853   -2.616043   -0.083849
     50          1           0        2.699113   -2.052637   -1.481293
     51          6           0       -0.889061    2.149715    0.550190
     52          1           0       -1.766159    2.667435    0.222231
     53          1           0       -0.018901    2.672356    0.211751
     54          1           0       -0.882509    2.100774    1.619061
     55          6           0       -4.472649   -2.119235   -0.369201
     56          1           0       -5.344748   -2.638490   -0.030494
     57          1           0       -3.597475   -2.639648   -0.040353
     58          1           0       -4.478649   -2.071407   -1.438103
     59          6           0       -8.042485    2.153577    0.588406
     60          1           0       -7.169159    2.670999    0.250023
     61          1           0       -8.036926    2.105687    1.657314
     62          1           0       -8.916429    2.675902    0.259320
     63          6           0      -11.635216   -0.674224    0.247798
     64          1           0      -12.212257   -0.027276    0.874998
     65          1           0      -11.343430   -1.541536    0.802390
     66          7           0      -12.443018   -1.082158   -0.910592
     67          1           0      -11.903646   -1.686693   -1.496797
     68          1           0      -13.259117   -1.565703   -0.594172
     69          1           0      -12.715790   -0.271603   -1.428825
     70          8           0       12.215034    0.105601    0.350591
     71          1           0       12.993384    0.580457    0.050019
 ---------------------------------------------------------------------

 SCF Done:  E(RHF) =  -1758.33224722     A.U. after   14 cycles

 The electronic state is 1-A.
 Alpha  occ. eigenvalues --  -20.68103 -20.66871 -20.61608 -20.58884 -20.58521
 Alpha  occ. eigenvalues --  -20.57472 -20.56753 -20.56569 -15.90373 -15.74044
 Alpha  occ. eigenvalues --  -15.68591 -15.66176 -15.64925 -15.64344 -15.64307
 Alpha  occ. eigenvalues --  -11.52551 -11.49305 -11.45551 -11.44126 -11.42719
 Alpha  occ. eigenvalues --  -11.41255 -11.40518 -11.40349 -11.40101 -11.36542
 Alpha  occ. eigenvalues --  -11.34672 -11.33879 -11.33748 -11.33338 -11.32181
 Alpha  occ. eigenvalues --  -11.29509 -11.27662 -11.26817 -11.26427 -11.26331
 Alpha  occ. eigenvalues --   -1.55051  -1.51791  -1.51378  -1.46368  -1.43671
 Alpha  occ. eigenvalues --   -1.42338  -1.41654  -1.40828  -1.37735  -1.37652
 Alpha  occ. eigenvalues --   -1.32389  -1.29992  -1.28769  -1.28306  -1.27978
 Alpha  occ. eigenvalues --   -1.20999  -1.15774  -1.13109  -1.11825  -1.10460
 Alpha  occ. eigenvalues --   -1.08669  -1.06840  -1.01640  -1.00073  -0.99748
 Alpha  occ. eigenvalues --   -0.98072  -0.96892  -0.96483  -0.95243  -0.93982
 Alpha  occ. eigenvalues --   -0.92692  -0.90051  -0.88692  -0.87863  -0.86572
 Alpha  occ. eigenvalues --   -0.85304  -0.85171  -0.84398  -0.83726  -0.82384
 Alpha  occ. eigenvalues --   -0.81079  -0.79194  -0.77856  -0.76578  -0.74730
 Alpha  occ. eigenvalues --   -0.73856  -0.73736  -0.73618  -0.72936  -0.71943
 Alpha  occ. eigenvalues --   -0.71336  -0.71023  -0.70294  -0.69506  -0.69321
 Alpha  occ. eigenvalues --   -0.68849  -0.68280  -0.68241  -0.67207  -0.66722
 Alpha  occ. eigenvalues --   -0.65968  -0.65424  -0.65158  -0.64602  -0.64150
 Alpha  occ. eigenvalues --   -0.63505  -0.63229  -0.63048  -0.63016  -0.62253
 Alpha  occ. eigenvalues --   -0.61741  -0.60716  -0.60067  -0.59527  -0.59354
 Alpha  occ. eigenvalues --   -0.58974  -0.58761  -0.58558  -0.58318  -0.57812
 Alpha  occ. eigenvalues --   -0.57507  -0.57073  -0.56761  -0.55800  -0.54595
 Alpha  occ. eigenvalues --   -0.53549  -0.53490  -0.51337  -0.50033  -0.49464
 Alpha  occ. eigenvalues --   -0.48752  -0.48065  -0.47493  -0.47007  -0.46188
 Alpha  occ. eigenvalues --   -0.45336  -0.44300  -0.43917  -0.43162
 Alpha virt. eigenvalues --   -0.02017   0.02530   0.06020   0.07122   0.07919
 Alpha virt. eigenvalues --    0.08582   0.11339   0.12549   0.12729   0.13110
 Alpha virt. eigenvalues --    0.13572   0.13814   0.14513   0.14952   0.16595

 Mulliken charges:
               1
     1  C    0.790812
     2  O   -0.692093
     3  N   -0.721692
     4  H    0.343811
     5  C    0.004163
     6  C    0.789994
     7  O   -0.695275
     8  N   -0.723523
     9  H    0.341812
    10  C    0.006392
    11  C    0.789086
    12  O   -0.696374
    13  N   -0.724515
    14  H    0.341360
    15  C    0.007976
    16  C    0.788984
    17  O   -0.696280
    18  N   -0.725132
    19  H    0.341418
    20  C    0.008120
    21  C    0.789652
    22  O   -0.692873
    23  N   -0.724931
    24  H    0.342323
    25  C    0.012820
    26  C    0.818923
    27  O   -0.640017
    28  H    0.195056
    29  H    0.191771
    30  H    0.191062
    31  H    0.190624
    32  H    0.211398
    33  N   -0.706948
    34  H    0.199356
    35  C   -0.006546
    36  C    0.762974
    37  O   -0.655308
    38  H    0.350333
    39  C   -0.331476
    40  H    0.159001
    41  H    0.135616
    42  H    0.138442
    43  C   -0.321750
    44  H    0.154393
    45  H    0.126453
    46  H    0.139422
    47  C   -0.321728
    48  H    0.151809
    49  H    0.127976
    50  H    0.138607
    51  C   -0.321789
    52  H    0.149990
    53  H    0.131720
    54  H    0.139752
    55  C   -0.322066
    56  H    0.143696
    57  H    0.138820
    58  H    0.140585
    59  C   -0.324463
    60  H    0.152356
    61  H    0.149343
    62  H    0.152061
    63  C   -0.202082
    64  H    0.248956
    65  H    0.223376
    66  N   -0.591566
    67  H    0.401638
    68  H    0.396329
    69  H    0.411528
    70  O   -0.615475
    71  H    0.391814
 Sum of Mulliken charges =   1.00000

 Dipole moment (field-independent basis, Debye):
    X=            -48.1271    Y=             -5.2444    Z=             -1.1760  Tot=             48.4263
 Quadrupole moment (field-independent basis, Debye-Ang):
   XX=            524.4925   YY=           -192.5477   ZZ=           -222.4373
   XY=             62.1902   XZ=             23.9479   YZ=             17.5532

 Normal termination of Gaussian 16 at Sun Feb  9 22:23:35 2020.
