 Gaussian 16, Revision A.03,
 Gaussian 16:  ES64L-G16RevA.03 25-Dec-2016

 -----------
 #p hf/3-21g
 -----------

 ----------------------------------
 gebf{dis=3.0 frag=conn charge=npa}
 ----------------------------------
 Symbolic Z-matrix:
 Charge =  0 Multiplicity = 1

                         Standard orientation:
 ---------------------------------------------------------------------
 Center     Atomic      Atomic             Coordinates (Angstroms)
 Number     Number       Type             X           Y           Z
 ---------------------------------------------------------------------
      1          6           0        2.908029   -0.728403   -0.126211
      2          1           0        2.849218   -1.667307    0.383595
      3          1           0        2.907656   -0.895752   -1.183044
      4          6           0        1.695362    0.140307    0.256386
      5          1           0        1.695735    0.307656    1.313218
      6          6           0        0.397515   -0.583157   -0.148325
      7          1           0        0.338703   -1.522060    0.361481
      8          1           0        0.397142   -0.750506   -1.205158
      9          6           0       -2.113000   -0.437910   -0.170439
     10          1           0       -2.171811   -1.376814    0.339367
     11          1           0       -2.113372   -0.605259   -1.227271
     12          6           0       -3.325666    0.430801    0.212158
     13          1           0       -3.266855    1.369704   -0.297648
     14          1           0       -3.325293    0.598149    1.268990
     15          7           0       -4.564521   -0.259779   -0.174157
     16          1           0       -4.619484   -1.137259    0.302297
     17          1           0       -5.351966    0.304319    0.074283
     18          9           0        1.769563    1.324905   -0.386827
     19          8           0        4.113173   -0.056615    0.249592
     20          1           0        4.869121   -0.598149    0.011090
     21          6           0       -0.815152    0.285554    0.234272
     22          1           0       -0.756341    1.224457   -0.275534
     23          1           0       -0.814779    0.452903    1.291104
 ---------------------------------------------------------------------

 SCF Done:  E(RHF) =  -461.521097561     A.U. after   12 cycles

 The electronic state is 1-A.
 Alpha  occ. eigenvalues --  -26.13000 -20.43887 -15.44276 -11.24928 -11.22050
 Alpha  occ. eigenvalues --  -11.18272 -11.16730 -11.16022 -11.15614  -1.57978
 Alpha  occ. eigenvalues --   -1.34897  -1.17641  -1.09469  -1.03046  -0.95282
 Alpha  occ. eigenvalues --   -0.86461  -0.82052  -0.80882  -0.71462  -0.69691
 Alpha  occ. eigenvalues --   -0.67238  -0.65461  -0.64654  -0.63154  -0.61587
 Alpha  occ. eigenvalues --   -0.60057  -0.57362  -0.55030  -0.52425  -0.51492
 Alpha  occ. eigenvalues --   -0.50575  -0.48204  -0.47845  -0.46561  -0.43933
 Alpha  occ. eigenvalues --   -0.43173  -0.36975
 Alpha virt. eigenvalues --    0.25341   0.26048   0.27215   0.28541   0.29418
 Alpha virt. eigenvalues --    0.31005   0.33161   0.34535   0.35966   0.37072
 Alpha virt. eigenvalues --    0.37283   0.38170   0.39013   0.39529   0.39899

 Mulliken charges:
               1
     1  C   -0.094734
     2  H    0.186114
     3  H    0.203071
     4  C    0.204688
     5  H    0.218380
     6  C   -0.477861
     7  H    0.211144
     8  H    0.229084
     9  C   -0.415224
    10  H    0.197047
    11  H    0.230737
    12  C   -0.201856
    13  H    0.218312
    14  H    0.179840
    15  N   -0.771256
    16  H    0.285248
    17  H    0.287310
    18  F   -0.409208
    19  O   -0.681542
    20  H    0.377370
    21  C   -0.420843
    22  H    0.236819
    23  H    0.207357
 Sum of Mulliken charges =  -0.00000

 Dipole moment (field-independent basis, Debye):
    X=             -0.4106    Y=             -3.1074    Z=              1.4794  Tot=              3.4660
 Quadrupole moment (field-independent basis, Debye-Ang):
   XX=            -53.4924   YY=            -56.5157   ZZ=            -57.1614
   XY=            -12.4725   XZ=            -10.1683   YZ=             -0.2670

 Normal termination of Gaussian 16 at Sun Feb  9 19:22:41 2020.
